 Gaussian 09, Revision D.01,

 ----------------------------------
 #p opt freq pbepbe def2svp scf=xqc
 ----------------------------------

 ------------------------
 -- Glycine conformers --
 ------------------------
 Symbolic Z-matrix:
 Charge =  0 Multiplicity = 1

 SCF Done:  E(RPBE-PBE) =  -283.877665030     A.U. after   17 cycles
 SCF Done:  E(RPBE-PBE) =  -283.897271375     A.U. after   13 cycles
 SCF Done:  E(RPBE-PBE) =  -283.902860873     A.U. after   13 cycles
 SCF Done:  E(RPBE-PBE) =  -283.903609720     A.U. after   13 cycles
 SCF Done:  E(RPBE-PBE) =  -283.903735457     A.U. after   12 cycles
 SCF Done:  E(RPBE-PBE) =  -283.903760335     A.U. after    9 cycles
 SCF Done:  E(RPBE-PBE) =  -283.903761704     A.U. after    8 cycles
 Optimization completed.
    -- Stationary point found.

 1\1\GINC-HEISENBERG\FOpt\RPBEPBE\def2SVP\C2H5N1O2\LEIN\11-Sep-2015\0\\
 #p opt freq pbepbe def2svp scf=xqc\\-- Glycine conformers --\\0,1\N,-0
 .084203663,-1.9784936413,0.\C,-0.7788964115,-0.7092184711,0.\H,0.54874
 96022,-2.0094958151,0.8106780276\H,0.5487496022,-2.0094958151,-0.81067
 80276\C,0.1177754411,0.5280941485,0.\H,-1.4556182563,-0.6313647285,-0.
 879754692\H,-1.4556182563,-0.6313647285,0.879754692\O,1.3341821003,0.5
 046354247,0.\O,-0.6025259516,1.6780777091,0.\H,0.0576608727,2.40553951
 79,0.\\Version=EM64L-G09RevD.01\State=1-A'\HF=-283.9037617\RMSD=7.286e

 Normal termination of Gaussian 09 at Fri Sep 11 12:58:23 2015.

 --------------------------------------------------------------------
 #P Geom=AllCheck Guess=TCheck SCRF=Check GenChk RPBEPBE/def2SVP Freq
 --------------------------------------------------------------------

 Structure from the checkpoint file:  "1-ttt.chk"
 ------------------------
 -- Glycine conformers --
 ------------------------
 Charge =  0 Multiplicity = 1

 SCF Done:  E(RPBE-PBE) =  -283.903761704     A.U. after    1 cycles

  Exact polarizability:  38.042  -2.356  40.497   0.000   0.000  26.660
 Approx polarizability:  75.279  -3.083  57.864   0.000   0.000  42.682

                      1                      2                      3
                     A"                     A"                     A'
 Frequencies --     58.5147               241.2609               254.5946
 Red. masses --      1.9106                 1.2615                 4.5880
 Frc consts  --      0.0039                 0.0433                 0.1752
 IR Inten    --      5.3793                43.5565                 9.7134

                      4                      5                      6
                     A'                     A"                     A'
 Frequencies --    458.1653               495.4646               625.4501
 Red. masses --      4.6402                 1.5492                 3.9876
 Frc consts  --      0.5739                 0.2241                 0.9191
 IR Inten    --     32.1121                33.5608                 6.4879

                      7                      8                      9
                     A"                     A'                     A"
 Frequencies --    664.6836               811.5025               897.8803
 Red. masses --      1.3156                 2.6779                 1.7230
 Frc consts  --      0.3424                 1.0390                 0.8184
 IR Inten    --     84.6379                92.5902                 3.6036

                     10                     11                     12
                     A'                     A'                     A"
 Frequencies --    906.6963              1118.9175              1131.3991
 Red. masses --      1.7585                 2.9612                 1.2312
 Frc consts  --      0.8518                 2.1843                 0.9286
 IR Inten    --    123.8866               221.1176                 0.8503

                     13                     14                     15
                     A'                     A'                     A"
 Frequencies --   1151.6120              1259.6258              1334.0441
 Red. masses --      2.3412                 1.4906                 1.2057
 Frc consts  --      1.8294                 1.3935                 1.2642
 IR Inten    --     31.9270                12.6044                 1.1516

                     16                     17                     18
                     A'                     A'                     A'
 Frequencies --   1354.8707              1379.9615              1603.9129
 Red. masses --      1.8180                 1.3077                 1.0881
 Frc consts  --      1.9662                 1.4672                 1.6493
 IR Inten    --     33.1719                11.2711                16.0110

                     19                     20                     21
                     A'                     A'                     A"
 Frequencies --   1804.7450              2970.2937              3014.9123
 Red. masses --     10.3494                 1.0628                 1.1024
 Frc consts  --     19.8608                 5.5246                 5.9037
 IR Inten    --    247.3463                17.0242                 5.8983

                     22                     23                     24
                     A'                     A"                     A'
 Frequencies --   3408.4738              3477.1178              3619.1053
 Red. masses --      1.0514                 1.0900                 1.0638
 Frc consts  --      7.1967                 7.7648                 8.2097
 IR Inten    --      1.1330                 2.1711                37.2839

 - Thermochemistry -
 -------------------
 Temperature   298.150 Kelvin.  Pressure   1.00000 Atm.
 Atom     1 has atomic number  7 and mass  14.00307

 Molecular mass:    75.03203 amu.
 Principal axes and moments of inertia in atomic units:
                           1         2         3
     Eigenvalues --   176.33868 468.20462 623.94017
           X           -0.18553   0.98264   0.00000
           Y            0.98264   0.18553   0.00000
           Z            0.00000   0.00000   1.00000
 This molecule is an asymmetric top.
 Rotational symmetry number  1.
 Rotational temperatures (Kelvin)      0.49118     0.18499     0.13882
 Rotational constants (GHZ):          10.23452     3.85460     2.89249
 Zero-point vibrational energy     203623.6 (Joules/Mol)
                                   48.66720 (Kcal/Mol)
 Warning -- explicit consideration of   5 degrees of freedom as
           vibrations may cause significant error
 Vibrational temperatures:     84.19   347.12   366.30   659.20   712.86
          (Kelvin)            899.88   956.33  1167.57  1291.85  1304.53
                             1609.87  1627.83  1656.91  1812.32  1919.39
                             1949.35  1985.45  2307.67  2596.62  4273.58
                             4337.78  4904.03  5002.79  5207.08

 Zero-point correction=                           0.077556 (Hartree/Particle)
 Thermal correction to Energy=                    0.083236
 Thermal correction to Enthalpy=                  0.084180
 Thermal correction to Gibbs Free Energy=         0.048425
 Sum of electronic and zero-point Energies=           -283.826206
 Sum of electronic and thermal Energies=              -283.820526
 Sum of electronic and thermal Enthalpies=            -283.819582
 Sum of electronic and thermal Free Energies=         -283.855337

                     E (Thermal)             CV                S
                      KCal/Mol        Cal/Mol-Kelvin    Cal/Mol-Kelvin
 Total                   52.231             18.945             75.253
 Electronic               0.000              0.000              0.000
 Translational            0.889              2.981             38.862
 Rotational               0.889              2.981             25.447
 Vibrational             50.454             12.984             10.944
 Vibration     1          0.596              1.974              4.507
 Vibration     2          0.658              1.777              1.794
 Vibration     3          0.665              1.755              1.699
 Vibration     4          0.816              1.343              0.771
 Vibration     5          0.851              1.260              0.670

 Optimization completed.
    -- Stationary point found.

 1\1\GINC-HEISENBERG\Freq\RPBEPBE\def2SVP\C2H5N1O2\LEIN\11-Sep-2015\0\\
 #P Geom=AllCheck Guess=TCheck SCRF=Check GenChk RPBEPBE/def2SVP Freq\\
 -- Glycine conformers --\\0,1\N,-0.084203663,-1.9784936413,0.\C,-0.778
 8964115,-0.7092184711,0.\H,0.5487496022,-2.0094958151,0.8106780276\H,0
 .5487496022,-2.0094958151,-0.8106780276\C,0.1177754411,0.5280941485,0.
 \H,-1.4556182563,-0.6313647285,-0.879754692\H,-1.4556182563,-0.6313647
 285,0.879754692\O,1.3341821003,0.5046354247,0.\O,-0.6025259516,1.67807
 77091,0.\H,0.0576608727,2.4055395179,0.\\Version=EM64L-G09RevD.01\Stat

 Normal termination of Gaussian 09 at Fri Sep 11 13:00:44 2015.
 Gaussian 09:  EM64L-G09RevD.01 24-Apr-2013

 ----------------------------------------------------------
 #p td=(nstates=24) pbepbe def2svp geom=allcheck guess=read
 ----------------------------------------------------------

 Structure from the checkpoint file:  "1-ttt.chk"
 ------------------------
 -- Glycine conformers --
 ------------------------
 Charge =  0 Multiplicity = 1

                         Standard orientation:
 ---------------------------------------------------------------------
 Center     Atomic      Atomic             Coordinates (Angstroms)
 Number     Number       Type             X           Y           Z
 ---------------------------------------------------------------------
      1          7           0        0.390332   -1.932034    0.000000
      2          6           0       -0.582154   -0.860619    0.000000
      3          1           0        1.012959   -1.814023    0.810678
      4          1           0        1.012959   -1.814023   -0.810678
      5          6           0        0.000000    0.552200    0.000000
      6          1           0       -1.258300   -0.943324   -0.879755
      7          1           0       -1.258300   -0.943324    0.879755
      8          8           0        1.188107    0.814110    0.000000
      9          8           0       -0.969461    1.501643    0.000000
     10          1           0       -0.497886    2.363422    0.000000
 ---------------------------------------------------------------------

 SCF Done:  E(RPBE-PBE) =  -283.903761704     A.U. after    1 cycles

 Excitation energies and oscillator strengths:

 Excited State   1:      Singlet-A"     4.7389 eV  261.63 nm  f=0.0008  <S**2>=0.000
      20 -> 21         0.70535
 This state for optimization and/or second-order correction.
 Total Energy, E(TD-HF/TD-KS) =  -283.729610428
 Copying the excited state density for this state as the 1-particle RhoCI density.

 Excited State   2:      Singlet-A"     5.7661 eV  215.02 nm  f=0.0006  <S**2>=0.000
      19 -> 21         0.70569

 Excited State   3:      Singlet-A'     6.2911 eV  197.08 nm  f=0.0293  <S**2>=0.000
      20 -> 22         0.70516

 Excited State   4:      Singlet-A'     6.7168 eV  184.59 nm  f=0.0082  <S**2>=0.000
      20 -> 23         0.70344

 Excited State   5:      Singlet-A'     7.2193 eV  171.74 nm  f=0.0415  <S**2>=0.000
      18 -> 21         0.17143
      19 -> 22         0.68378

 Excited State   6:      Singlet-A'     7.5762 eV  163.65 nm  f=0.0281  <S**2>=0.000
      18 -> 21         0.18313
      19 -> 23         0.67297

 Excited State   7:      Singlet-A'     7.7144 eV  160.72 nm  f=0.0199  <S**2>=0.000
      20 -> 24         0.69856

 Excited State   8:      Singlet-A"     7.8466 eV  158.01 nm  f=0.0137  <S**2>=0.000
      20 -> 25         0.70447

 Excited State   9:      Singlet-A'     8.2438 eV  150.40 nm  f=0.0758  <S**2>=0.000
      17 -> 21         0.55369
      18 -> 21        -0.38190
      19 -> 22         0.11488
      19 -> 24        -0.10633

 Excited State  10:      Singlet-A"     8.4646 eV  146.47 nm  f=0.0013  <S**2>=0.000
      18 -> 22         0.69789

 Excited State  11:      Singlet-A'     8.5493 eV  145.02 nm  f=0.0227  <S**2>=0.000
      19 -> 24         0.69786

 Excited State  12:      Singlet-A"     8.6874 eV  142.72 nm  f=0.0024  <S**2>=0.000
      18 -> 23        -0.11486
      19 -> 25         0.69259

 Excited State  13:      Singlet-A'     8.6889 eV  142.69 nm  f=0.1281  <S**2>=0.000
      14 -> 21         0.17398
      17 -> 21         0.39690
      18 -> 21         0.47268
      18 -> 25         0.12689
      19 -> 22        -0.11100
      19 -> 23        -0.17887

 Excited State  14:      Singlet-A"     8.7346 eV  141.95 nm  f=0.0016  <S**2>=0.000
      18 -> 23         0.68835
      19 -> 25         0.11933

 Excited State  15:      Singlet-A"     8.8523 eV  140.06 nm  f=0.0014  <S**2>=0.000
      16 -> 21         0.69533

 Excited State  16:      Singlet-A"     9.3724 eV  132.29 nm  f=0.0049  <S**2>=0.000
      20 -> 26         0.70196

 Excited State  17:      Singlet-A"     9.5673 eV  129.59 nm  f=0.0000  <S**2>=0.000
      17 -> 22         0.70250

 Excited State  18:      Singlet-A"     9.6345 eV  128.69 nm  f=0.0007  <S**2>=0.000
      15 -> 21         0.69672

 Excited State  19:      Singlet-A"     9.7240 eV  127.50 nm  f=0.0025  <S**2>=0.000
      18 -> 24         0.70283

 Excited State  20:      Singlet-A"     9.9686 eV  124.37 nm  f=0.0002  <S**2>=0.000
      17 -> 23         0.69970

 Excited State  21:      Singlet-A'     9.9884 eV  124.13 nm  f=0.0042  <S**2>=0.000
      18 -> 21        -0.10841
      18 -> 25         0.68486

 Excited State  22:      Singlet-A"    10.1167 eV  122.55 nm  f=0.0001  <S**2>=0.000
      19 -> 26         0.70309

 Excited State  23:      Singlet-A'    10.3008 eV  120.36 nm  f=0.0585  <S**2>=0.000
      16 -> 22         0.68733
      16 -> 23        -0.12796

 Excited State  24:      Singlet-A'    10.5532 eV  117.49 nm  f=0.0142  <S**2>=0.000
      14 -> 21        -0.12876
      16 -> 22         0.11089
      16 -> 23         0.64457
      20 -> 27         0.19981

 The electronic state is 1-A'.
 Alpha  occ. eigenvalues --  -18.80743 -18.75064 -13.98091 -10.01515  -9.93662
 Alpha  occ. eigenvalues --   -1.00362  -0.91641  -0.80171  -0.64339  -0.53968
 Alpha  occ. eigenvalues --   -0.45357  -0.44387  -0.42268  -0.39316  -0.38251
 Alpha  occ. eigenvalues --   -0.34572  -0.32297  -0.28021  -0.23567  -0.20222
 Alpha virt. eigenvalues --   -0.03137   0.02697   0.03973   0.07699   0.08315
 Alpha virt. eigenvalues --    0.13534   0.18271   0.18363   0.24848   0.30748
 Alpha virt. eigenvalues --    0.40600   0.41003   0.43027   0.47071   0.48875

 Mulliken charges:
               1
     1  N   -0.192168
     2  C    0.032059
     3  H    0.099952
     4  H    0.099952
     5  C    0.029901
     6  H    0.054411
     7  H    0.054411
     8  O   -0.198003
     9  O   -0.155902
    10  H    0.175386
 Sum of Mulliken charges =   0.00000

 Dipole moment (field-independent basis, Debye):
    X=             -0.6573    Y=              1.0369    Z=              0.0000  Tot=              1.2277
 Quadrupole moment (field-independent basis, Debye-Ang):
   XX=            -31.8950   YY=            -29.3387   ZZ=            -27.2371
   XY=             -2.4710   XZ=              0.0000   YZ=              0.0000

 Normal termination of Gaussian 09 at Fri Sep 11 13:02:40 2015.
