 Gaussian 09, Revision D.01,

 ----------------------------------
 #p opt freq pbepbe def2svp scf=xqc
 ----------------------------------

 ------------------------
 -- Glycine conformers --
 ------------------------
 Symbolic Z-matrix:
 Charge =  0 Multiplicity = 1

 SCF Done:  E(RPBE-PBE) =  -283.881500517     A.U. after   17 cycles
 SCF Done:  E(RPBE-PBE) =  -283.901779099     A.U. after   14 cycles
 SCF Done:  E(RPBE-PBE) =  -283.904674437     A.U. after   13 cycles
 SCF Done:  E(RPBE-PBE) =  -283.905128422     A.U. after   13 cycles
 SCF Done:  E(RPBE-PBE) =  -283.905334480     A.U. after   12 cycles
 SCF Done:  E(RPBE-PBE) =  -283.905346518     A.U. after    9 cycles
 SCF Done:  E(RPBE-PBE) =  -283.905348853     A.U. after    9 cycles
 Optimization completed.
    -- Stationary point found.

 1\1\GINC-HEISENBERG\FOpt\RPBEPBE\def2SVP\C2H5N1O2\LEIN\11-Sep-2015\0\\
 #p opt freq pbepbe def2svp scf=xqc\\-- Glycine conformers --\\0,1\N,0.
 2414276652,-1.7353130728,0.\C,-0.7587715071,-0.6586635137,0.\H,0.16737
 54515,-2.3393163132,-0.8252258767\H,0.1673754515,-2.3393163132,0.82522
 58767\C,-0.0676209192,0.7273095555,0.\H,-1.426552761,-0.6938722363,-0.
 8854467308\H,-1.426552761,-0.6938722363,0.8854467308\O,-0.6837087817,1
 .7716416993,0.\O,1.2678983071,0.6233760265,0.\H,1.4048091106,-0.377719
 2464,0.\\Version=EM64L-G09RevD.01\State=1-A'\HF=-283.9053489\RMSD=2.87

 Normal termination of Gaussian 09 at Fri Sep 11 13:05:02 2015.

 --------------------------------------------------------------------
 #P Geom=AllCheck Guess=TCheck SCRF=Check GenChk RPBEPBE/def2SVP Freq
 --------------------------------------------------------------------

 Structure from the checkpoint file:  "2-ccc.chk"
 ------------------------
 -- Glycine conformers --
 ------------------------
 Charge =  0 Multiplicity = 1

 SCF Done:  E(RPBE-PBE) =  -283.905348853     A.U. after    1 cycles

  Exact polarizability:  35.247   2.450  42.104   0.000   0.000  25.937
 Approx polarizability:  62.570  11.596  71.347   0.000   0.000  40.999

 ******    1 imaginary frequencies (negative Signs) ******

                      1                      2                      3
                     A"                     A"                     A'
 Frequencies --    -78.7813               259.5371               345.9985
 Red. masses --      1.5251                 1.4890                 4.0521
 Frc consts  --      0.0056                 0.0591                 0.2858
 IR Inten    --      0.1647                12.4875                20.9084

                      4                      5                      6
                     A'                     A"                     A'
 Frequencies --    498.6530               517.1944               649.2517
 Red. masses --      6.9709                 2.4378                 5.0842
 Frc consts  --      1.0213                 0.3842                 1.2627
 IR Inten    --      0.3028                 1.0760                 2.7205

                      7                      8                      9
                     A'                     A"                     A'
 Frequencies --    790.8436               877.4188               879.2829
 Red. masses --      1.8173                 1.6173                 2.9850
 Frc consts  --      0.6697                 0.7336                 1.3597
 IR Inten    --     51.7466                10.8887                70.9885

                     10                     11                     12
                     A"                     A'                     A"
 Frequencies --    953.4351              1060.4979              1103.9744
 Red. masses --      1.0849                 2.9801                 1.2468
 Frc consts  --      0.5811                 1.9747                 0.8953
 IR Inten    --     60.9703                 9.1556                 5.2826

                     13                     14                     15
                     A'                     A'                     A"
 Frequencies --   1202.3759              1271.4329              1280.7426
 Red. masses --      3.5548                 1.4500                 1.1806
 Frc consts  --      3.0280                 1.3811                 1.1410
 IR Inten    --     31.8873                15.0079                 0.0956

                     16                     17                     18
                     A'                     A'                     A'
 Frequencies --   1383.0175              1440.7277              1573.3830
 Red. masses --      1.1016                 1.4468                 1.0975
 Frc consts  --      1.2415                 1.7694                 1.6008
 IR Inten    --      7.0068               355.6775                36.5147

                     19                     20                     21
                     A'                     A'                     A"
 Frequencies --   1847.1359              2997.4618              3053.7847
 Red. masses --      9.9708                 1.0619                 1.1068
 Frc consts  --     20.0437                 5.6212                 6.0812
 IR Inten    --    322.4231                 8.7283                 3.6023

                     22                     23                     24
                     A'                     A'                     A"
 Frequencies --   3122.6602              3449.9650              3532.1009
 Red. masses --      1.0655                 1.0512                 1.0950
 Frc consts  --      6.1216                 7.3715                 8.0491
 IR Inten    --    430.8328                 2.6861                18.6062

 - Thermochemistry -
 -------------------
 Temperature   298.150 Kelvin.  Pressure   1.00000 Atm.
 Atom     1 has atomic number  7 and mass  14.00307

 Molecular mass:    75.03203 amu.
 Principal axes and moments of inertia in atomic units:
                           1         2         3
     Eigenvalues --   176.52206 446.07086 601.50254
           X           -0.01684   0.99986   0.00000
           Y            0.99986   0.01684   0.00000
           Z            0.00000   0.00000   1.00000
 This molecule is an asymmetric top.
 Rotational symmetry number  1.
 Rotational temperatures (Kelvin)      0.49067     0.19417     0.14400
 Rotational constants (GHZ):          10.22388     4.04586     3.00039
    1 imaginary frequencies ignored.
 Zero-point vibrational energy     203908.7 (Joules/Mol)
                                   48.73535 (Kcal/Mol)
 Warning -- explicit consideration of   4 degrees of freedom as
           vibrations may cause significant error
 Vibrational temperatures:    373.42   497.81   717.45   744.13   934.13
          (Kelvin)           1137.85  1262.41  1265.09  1371.78  1525.82
                             1588.37  1729.95  1829.31  1842.70  1989.85
                             2072.88  2263.74  2657.61  4312.67  4393.71
                             4492.81  4963.72  5081.90

 Zero-point correction=                           0.077665 (Hartree/Particle)
 Thermal correction to Energy=                    0.082264
 Thermal correction to Enthalpy=                  0.083208
 Thermal correction to Gibbs Free Energy=         0.050121
 Sum of electronic and zero-point Energies=           -283.827684
 Sum of electronic and thermal Energies=              -283.823085
 Sum of electronic and thermal Enthalpies=            -283.822141
 Sum of electronic and thermal Free Energies=         -283.855228

                     E (Thermal)             CV                S
                      KCal/Mol        Cal/Mol-Kelvin    Cal/Mol-Kelvin
 Total                   51.622             16.243             69.638
 Electronic               0.000              0.000              0.000
 Translational            0.889              2.981             38.862
 Rotational               0.889              2.981             25.363
 Vibrational             49.844             10.282              5.413
 Vibration     1          0.668              1.747              1.665
 Vibration     2          0.724              1.583              1.184
 Vibration     3          0.854              1.253              0.662
 Vibration     4          0.872              1.212              0.617

 Optimization completed.
    -- Stationary point found.

 1\1\GINC-HEISENBERG\Freq\RPBEPBE\def2SVP\C2H5N1O2\LEIN\11-Sep-2015\0\\
 #P Geom=AllCheck Guess=TCheck SCRF=Check GenChk RPBEPBE/def2SVP Freq\\
 -- Glycine conformers --\\0,1\N,0.2414276652,-1.7353130728,0.\C,-0.758
 7715071,-0.6586635137,0.\H,0.1673754515,-2.3393163132,-0.8252258767\H,
 0.1673754515,-2.3393163132,0.8252258767\C,-0.0676209192,0.7273095555,0
 .\H,-1.426552761,-0.6938722363,-0.8854467308\H,-1.426552761,-0.6938722
 363,0.8854467308\O,-0.6837087817,1.7716416993,0.\O,1.2678983071,0.6233
 760265,0.\H,1.4048091106,-0.3777192464,0.\\Version=EM64L-G09RevD.01\St

 Normal termination of Gaussian 09 at Fri Sep 11 13:07:25 2015.
 Gaussian 09:  EM64L-G09RevD.01 24-Apr-2013

 ----------------------------------------------------------
 #p td=(nstates=24) pbepbe def2svp geom=allcheck guess=read
 ----------------------------------------------------------

 Structure from the checkpoint file:  "2-ccc.chk"
 ------------------------
 -- Glycine conformers --
 ------------------------
 Charge =  0 Multiplicity = 1

                         Standard orientation:
 ---------------------------------------------------------------------
 Center     Atomic      Atomic             Coordinates (Angstroms)
 Number     Number       Type             X           Y           Z
 ---------------------------------------------------------------------
      1          7           0       -0.046293   -1.774735    0.000000
      2          6           0        0.834157   -0.598138    0.000000
      3          1           0        0.091361   -2.367487    0.825226
      4          1           0        0.091361   -2.367487   -0.825226
      5          6           0        0.000000    0.706772    0.000000
      6          1           0        1.501909   -0.562370    0.885447
      7          1           0        1.501909   -0.562370   -0.885447
      8          8           0        0.501928    1.810521    0.000000
      9          8           0       -1.316980    0.461872    0.000000
     10          1           0       -1.347013   -0.548095    0.000000
 ---------------------------------------------------------------------

 SCF Done:  E(RPBE-PBE) =  -283.905348853     A.U. after    1 cycles

 Excitation energies and oscillator strengths:

 Excited State   1:      Singlet-A"     5.3303 eV  232.60 nm  f=0.0012  <S**2>=0.000
      20 -> 21         0.70650
 This state for optimization and/or second-order correction.
 Total Energy, E(TD-HF/TD-KS) =  -283.709465627
 Copying the excited state density for this state as the 1-particle RhoCI density.

 Excited State   2:      Singlet-A'     5.5247 eV  224.42 nm  f=0.0172  <S**2>=0.000
      20 -> 22         0.70500

 Excited State   3:      Singlet-A"     6.8231 eV  181.71 nm  f=0.0007  <S**2>=0.000
      18 -> 21         0.59384
      19 -> 22        -0.14431
      20 -> 23         0.35537

 Excited State   4:      Singlet-A"     6.8508 eV  180.98 nm  f=0.0001  <S**2>=0.000
      19 -> 22         0.67170
      20 -> 23         0.21822

 Excited State   5:      Singlet-A"     6.9012 eV  179.66 nm  f=0.0000  <S**2>=0.000
      18 -> 21        -0.38179
      19 -> 22        -0.16684
      20 -> 23         0.57018

 Excited State   6:      Singlet-A'     7.2854 eV  170.18 nm  f=0.0057  <S**2>=0.000
      18 -> 22         0.62913
      19 -> 21        -0.14160
      20 -> 24         0.28399

 Excited State   7:      Singlet-A'     7.3944 eV  167.67 nm  f=0.0391  <S**2>=0.000
      18 -> 22        -0.28668
      20 -> 24         0.64293

 Excited State   8:      Singlet-A'     7.6671 eV  161.71 nm  f=0.0277  <S**2>=0.000
      18 -> 22         0.13121
      19 -> 21         0.52953
      19 -> 23        -0.42545

 Excited State   9:      Singlet-A'     8.2951 eV  149.47 nm  f=0.0030  <S**2>=0.000
      19 -> 23        -0.14771
      20 -> 25         0.68833

 Excited State  10:      Singlet-A"     8.3213 eV  149.00 nm  f=0.0001  <S**2>=0.000
      17 -> 21         0.70409

 Excited State  11:      Singlet-A'     8.4687 eV  146.40 nm  f=0.0119  <S**2>=0.000
      17 -> 22         0.69641

 Excited State  12:      Singlet-A"     8.5768 eV  144.56 nm  f=0.0001  <S**2>=0.000
      18 -> 23         0.70462

 Excited State  13:      Singlet-A"     8.6854 eV  142.75 nm  f=0.0005  <S**2>=0.000
      19 -> 24         0.70677

 Excited State  14:      Singlet-A'     8.7772 eV  141.26 nm  f=0.0558  <S**2>=0.000
      18 -> 24         0.20166
      19 -> 21         0.33844
      19 -> 23         0.49203
      20 -> 25         0.10329
      20 -> 27         0.21372

 Excited State  15:      Singlet-A'     9.0843 eV  136.48 nm  f=0.0459  <S**2>=0.000
      18 -> 24         0.66409
      19 -> 21        -0.11387
      19 -> 23        -0.12664
      20 -> 27        -0.10298

 Excited State  16:      Singlet-A"     9.1080 eV  136.13 nm  f=0.0000  <S**2>=0.000
      16 -> 22         0.69999

 Excited State  17:      Singlet-A"     9.2187 eV  134.49 nm  f=0.0143  <S**2>=0.000
      20 -> 26         0.69802

 Excited State  18:      Singlet-A'     9.3638 eV  132.41 nm  f=0.0898  <S**2>=0.000
      14 -> 21         0.16412
      16 -> 21         0.64537
      18 -> 24         0.10729
      18 -> 25        -0.10753

 Excited State  19:      Singlet-A'     9.5596 eV  129.70 nm  f=0.0069  <S**2>=0.000
      18 -> 25        -0.16881
      19 -> 21        -0.13894
      19 -> 23        -0.11214
      20 -> 27         0.64386

 Excited State  20:      Singlet-A"     9.7113 eV  127.67 nm  f=0.0004  <S**2>=0.000
      15 -> 21         0.17126
      17 -> 23        -0.16437
      19 -> 25         0.66428

 Excited State  21:      Singlet-A"     9.7968 eV  126.56 nm  f=0.0002  <S**2>=0.000
      15 -> 21        -0.29028
      17 -> 23         0.60284
      19 -> 25         0.22346

 Excited State  22:      Singlet-A'     9.8248 eV  126.20 nm  f=0.0150  <S**2>=0.000
      15 -> 22         0.70082

 Excited State  23:      Singlet-A"     9.8841 eV  125.44 nm  f=0.0158  <S**2>=0.000
      15 -> 21         0.61036
      17 -> 23         0.32878

 Excited State  24:      Singlet-A'    10.3206 eV  120.13 nm  f=0.0158  <S**2>=0.000
      16 -> 23        -0.12054
      17 -> 24         0.69192

 The electronic state is 1-A'.
 Alpha  occ. eigenvalues --  -18.77570 -18.72083 -14.02868  -9.99631  -9.94811
 Alpha  occ. eigenvalues --   -0.97638  -0.89748  -0.82995  -0.64018  -0.51497
 Alpha  occ. eigenvalues --   -0.48439  -0.46143  -0.44217  -0.39204  -0.36000
 Alpha  occ. eigenvalues --   -0.33321  -0.30992  -0.26247  -0.25166  -0.20119
 Alpha virt. eigenvalues --   -0.01277  -0.00023   0.04957   0.06725   0.10110
 Alpha virt. eigenvalues --    0.13580   0.14199   0.20366   0.25824   0.33999
 Alpha virt. eigenvalues --    0.37607   0.39830   0.43368   0.47653   0.48932

 Mulliken charges:
               1
     1  N   -0.248642
     2  C   -0.016111
     3  H    0.127471
     4  H    0.127471
     5  C    0.076453
     6  H    0.062183
     7  H    0.062183
     8  O   -0.200168
     9  O   -0.152883
    10  H    0.162043
 Sum of Mulliken charges =   0.00000

 Dipole moment (field-independent basis, Debye):
    X=              1.0856    Y=             -5.6516    Z=              0.0000  Tot=              5.7549
 Quadrupole moment (field-independent basis, Debye-Ang):
   XX=            -30.8293   YY=            -29.8620   ZZ=            -26.9333
   XY=             -1.3199   XZ=              0.0000   YZ=              0.0000

 Normal termination of Gaussian 09 at Fri Sep 11 13:09:27 2015.
