 Gaussian 09, Revision D.01,

 ----------------------------------
 #p opt freq pbepbe def2svp scf=xqc
 ----------------------------------

 ------------------------
 -- Glycine conformers --
 ------------------------
 Symbolic Z-matrix:
 Charge =  0 Multiplicity = 1

 SCF Done:  E(RPBE-PBE) =  -283.875750437     A.U. after   16 cycles
 SCF Done:  E(RPBE-PBE) =  -283.894804798     A.U. after   13 cycles
 SCF Done:  E(RPBE-PBE) =  -283.898868931     A.U. after   13 cycles
 SCF Done:  E(RPBE-PBE) =  -283.896675061     A.U. after   13 cycles
 SCF Done:  E(RPBE-PBE) =  -283.899536549     A.U. after   11 cycles
 SCF Done:  E(RPBE-PBE) =  -283.900267950     A.U. after   13 cycles
 SCF Done:  E(RPBE-PBE) =  -283.900483170     A.U. after   12 cycles
 SCF Done:  E(RPBE-PBE) =  -283.900544470     A.U. after   12 cycles
 SCF Done:  E(RPBE-PBE) =  -283.900548003     A.U. after    9 cycles
 SCF Done:  E(RPBE-PBE) =  -283.900548585     A.U. after    8 cycles
 SCF Done:  E(RPBE-PBE) =  -283.900548882     A.U. after    8 cycles
 SCF Done:  E(RPBE-PBE) =  -283.900549364     A.U. after    8 cycles
 SCF Done:  E(RPBE-PBE) =  -283.900549511     A.U. after    8 cycles
 Optimization completed.
    -- Stationary point found.

 1\1\GINC-HEISENBERG\FOpt\RPBEPBE\def2SVP\C2H5N1O2\LEIN\11-Sep-2015\0\\
 #p opt freq pbepbe def2svp scf=xqc\\-- Glycine conformers --\\0,1\N,0.
 013221583,-1.903717962,0.1719726473\C,-0.7866848492,-0.7097801694,-0.0
 118521809\H,0.8788545587,-1.800231273,-0.3751001345\H,-0.4790028194,-2
 .7281135884,-0.1872859823\C,0.1045811507,0.51767214,-0.0497456911\H,-1
 .3860611878,-0.651527852,-0.9615298685\H,-1.5289433605,-0.5777418601,0
 .8061582367\O,1.290657196,0.5012896976,-0.3209976545\O,-0.5840169161,1
 .6559466003,0.2031696965\H,0.0654733245,2.385444647,0.0988273213\\Vers

 Normal termination of Gaussian 09 at Fri Sep 11 13:15:49 2015.

 --------------------------------------------------------------------
 #P Geom=AllCheck Guess=TCheck SCRF=Check GenChk RPBEPBE/def2SVP Freq
 --------------------------------------------------------------------

 Structure from the checkpoint file:  "3-gtt.chk"
 ------------------------
 -- Glycine conformers --
 ------------------------
 Charge =  0 Multiplicity = 1

 SCF Done:  E(RPBE-PBE) =  -283.900549511     A.U. after    1 cycles

  Exact polarizability:  43.359  -0.551  38.079  -1.028  -0.386  24.600
 Approx polarizability:  61.924  -3.848  75.712  -1.322  -0.166  38.876

                      1                      2                      3
                      A                      A                      A
 Frequencies --    102.6850               195.0132               279.6196
 Red. masses --      2.7039                 1.0851                 4.3586
 Frc consts  --      0.0168                 0.0243                 0.2008
 IR Inten    --      2.5105                53.6130                 2.0144

                      4                      5                      6
                      A                      A                      A
 Frequencies --    454.6925               510.5509               619.5080
 Red. masses --      3.8404                 1.9727                 3.1019
 Frc consts  --      0.4678                 0.3030                 0.7014
 IR Inten    --     12.8123                17.7639                27.3686

                      7                      8                      9
                      A                      A                      A
 Frequencies --    673.9561               807.4896               832.6614
 Red. masses --      1.5317                 1.2365                 3.0031
 Frc consts  --      0.4099                 0.4750                 1.2268
 IR Inten    --     84.5353               174.7250                18.7683

                     10                     11                     12
                      A                      A                      A
 Frequencies --    983.7323              1102.8010              1124.6691
 Red. masses --      2.2279                 1.5485                 2.0707
 Frc consts  --      1.2703                 1.1096                 1.5432
 IR Inten    --      4.2709                 1.0162               182.7098

                     13                     14                     15
                      A                      A                      A
 Frequencies --   1177.2730              1221.1569              1295.8586
 Red. masses --      1.3360                 1.5581                 1.6992
 Frc consts  --      1.0910                 1.3690                 1.6812
 IR Inten    --     70.7631                 2.2046                27.7824

                     16                     17                     18
                      A                      A                      A
 Frequencies --   1401.3922              1428.7354              1559.5926
 Red. masses --      1.8064                 1.2612                 1.1062
 Frc consts  --      2.0902                 1.5168                 1.5853
 IR Inten    --     50.9555                 2.4541                52.8431

                     19                     20                     21
                      A                      A                      A
 Frequencies --   1806.5187              2840.1334              2984.6583
 Red. masses --      9.4288                 1.0746                 1.0865
 Frc consts  --     18.1298                 5.1073                 5.7027
 IR Inten    --    248.7782                63.8458                19.2276

                     22                     23                     24
                      A                      A                      A
 Frequencies --   3412.5028              3511.5537              3625.7001
 Red. masses --      1.0525                 1.0906                 1.0637
 Frc consts  --      7.2211                 7.9237                 8.2386
 IR Inten    --      7.0446                 6.7414                51.7657

 - Thermochemistry -
 -------------------
 Temperature   298.150 Kelvin.  Pressure   1.00000 Atm.
 Atom     1 has atomic number  7 and mass  14.00307

 Molecular mass:    75.03203 amu.
 Principal axes and moments of inertia in atomic units:
                           1         2         3
     Eigenvalues --   176.10659 457.21101 613.48614
           X            0.99988   0.00861  -0.01311
           Y           -0.00872   0.99992  -0.00894
           Z            0.01303   0.00905   0.99987
 This molecule is an asymmetric top.
 Rotational symmetry number  1.
 Rotational temperatures (Kelvin)      0.49183     0.18944     0.14118
 Rotational constants (GHZ):          10.24800     3.94728     2.94178
 Zero-point vibrational energy     203080.8 (Joules/Mol)
                                   48.53747 (Kcal/Mol)
 Warning -- explicit consideration of   6 degrees of freedom as
           vibrations may cause significant error
 Vibrational temperatures:    147.74   280.58   402.31   654.20   734.57
          (Kelvin)            891.33   969.67  1161.80  1198.01  1415.37
                             1586.68  1618.15  1693.83  1756.97  1864.45
                             2016.29  2055.63  2243.90  2599.17  4086.31
                             4294.25  4909.82  5052.34  5216.57

 Zero-point correction=                           0.077349 (Hartree/Particle)
 Thermal correction to Energy=                    0.082972
 Thermal correction to Enthalpy=                  0.083916
 Thermal correction to Gibbs Free Energy=         0.048608
 Sum of electronic and zero-point Energies=           -283.823200
 Sum of electronic and thermal Energies=              -283.817577
 Sum of electronic and thermal Enthalpies=            -283.816633
 Sum of electronic and thermal Free Energies=         -283.851942

                     E (Thermal)             CV                S
                      KCal/Mol        Cal/Mol-Kelvin    Cal/Mol-Kelvin
 Total                   52.066             18.933             74.314
 Electronic               0.000              0.000              0.000
 Translational            0.889              2.981             38.862
 Rotational               0.889              2.981             25.405
 Vibrational             50.288             12.971             10.047
 Vibration     1          0.605              1.947              3.403
 Vibration     2          0.636              1.847              2.180
 Vibration     3          0.680              1.711              1.536
 Vibration     4          0.813              1.351              0.782
 Vibration     5          0.866              1.227              0.632
 Vibration     6          0.979              0.991              0.417

 Optimization completed.
    -- Stationary point found.

 1\1\GINC-HEISENBERG\Freq\RPBEPBE\def2SVP\C2H5N1O2\LEIN\11-Sep-2015\0\\
 #P Geom=AllCheck Guess=TCheck SCRF=Check GenChk RPBEPBE/def2SVP Freq\\
 -- Glycine conformers --\\0,1\N,0.013221583,-1.903717962,0.1719726473\
 C,-0.7866848492,-0.7097801694,-0.0118521809\H,0.8788545587,-1.80023127
 3,-0.3751001345\H,-0.4790028194,-2.7281135884,-0.1872859823\C,0.104581
 1507,0.51767214,-0.0497456911\H,-1.3860611878,-0.651527852,-0.96152986
 85\H,-1.5289433605,-0.5777418601,0.8061582367\O,1.290657196,0.50128969
 76,-0.3209976545\O,-0.5840169161,1.6559466003,0.2031696965\H,0.0654733

 Normal termination of Gaussian 09 at Fri Sep 11 13:19:18 2015.
 Gaussian 09:  EM64L-G09RevD.01 24-Apr-2013

 ----------------------------------------------------------
 #p td=(nstates=24) pbepbe def2svp geom=allcheck guess=read
 ----------------------------------------------------------

 Structure from the checkpoint file:  "3-gtt.chk"
 ------------------------
 -- Glycine conformers --
 ------------------------
 Charge =  0 Multiplicity = 1

                         Standard orientation:
 ---------------------------------------------------------------------
 Center     Atomic      Atomic             Coordinates (Angstroms)
 Number     Number       Type             X           Y           Z
 ---------------------------------------------------------------------
      1          7           0       -1.883160    0.097719   -0.222123
      2          6           0       -0.736517   -0.715500    0.128611
      3          1           0       -1.734355    1.044846    0.152213
      4          1           0       -2.735438   -0.272106    0.211272
      5          6           0        0.538438    0.099449    0.015571
      6          1           0       -0.716405   -1.125352    1.175583
      7          1           0       -0.641961   -1.605923   -0.531488
      8          8           0        0.586758    1.314610    0.056456
      9          8           0        1.637855   -0.684824   -0.084430
     10          1           0        2.401849   -0.067479   -0.094027
 ---------------------------------------------------------------------

 SCF Done:  E(RPBE-PBE) =  -283.900549511     A.U. after    1 cycles

 Excitation energies and oscillator strengths:

 Excited State   1:      Singlet-A      4.4546 eV  278.33 nm  f=0.0084  <S**2>=0.000
      20 -> 21         0.70616
 This state for optimization and/or second-order correction.
 Total Energy, E(TD-HF/TD-KS) =  -283.736846031
 Copying the excited state density for this state as the 1-particle RhoCI density.

 Excited State   2:      Singlet-A      5.7720 eV  214.80 nm  f=0.0008  <S**2>=0.000
      19 -> 21         0.70648

 Excited State   3:      Singlet-A      5.9825 eV  207.24 nm  f=0.0016  <S**2>=0.000
      20 -> 22         0.70583

 Excited State   4:      Singlet-A      6.4069 eV  193.52 nm  f=0.0064  <S**2>=0.000
      20 -> 23         0.70399

 Excited State   5:      Singlet-A      7.2503 eV  171.01 nm  f=0.0540  <S**2>=0.000
      18 -> 21         0.18288
      19 -> 22         0.68139

 Excited State   6:      Singlet-A      7.4937 eV  165.45 nm  f=0.0333  <S**2>=0.000
      20 -> 24         0.70039

 Excited State   7:      Singlet-A      7.5387 eV  164.46 nm  f=0.0078  <S**2>=0.000
      18 -> 21         0.18859
      19 -> 23         0.67799

 Excited State   8:      Singlet-A      8.3004 eV  149.37 nm  f=0.0150  <S**2>=0.000
      18 -> 21         0.40542
      18 -> 22        -0.24399
      18 -> 23         0.25606
      19 -> 22        -0.11260
      19 -> 23        -0.13914
      20 -> 25         0.37764

 Excited State   9:      Singlet-A      8.3680 eV  148.16 nm  f=0.0973  <S**2>=0.000
      17 -> 21        -0.13573
      18 -> 21        -0.24342
      18 -> 22         0.19522
      18 -> 23        -0.19528
      19 -> 24        -0.14416
      20 -> 25         0.53421

 Excited State  10:      Singlet-A      8.4745 eV  146.30 nm  f=0.0081  <S**2>=0.000
      17 -> 21         0.61163
      18 -> 22         0.30680

 Excited State  11:      Singlet-A      8.5281 eV  145.38 nm  f=0.0186  <S**2>=0.000
      17 -> 21        -0.12972
      18 -> 22         0.15849
      20 -> 25        -0.12509
      20 -> 26         0.65297

 Excited State  12:      Singlet-A      8.5342 eV  145.28 nm  f=0.0077  <S**2>=0.000
      17 -> 21        -0.28252
      18 -> 21         0.18312
      18 -> 22         0.52641
      18 -> 23         0.18664
      20 -> 26        -0.22660

 Excited State  13:      Singlet-A      8.6125 eV  143.96 nm  f=0.0557  <S**2>=0.000
      19 -> 24         0.67234
      20 -> 25         0.17709

 Excited State  14:      Singlet-A      8.8760 eV  139.68 nm  f=0.0554  <S**2>=0.000
      16 -> 21         0.22417
      18 -> 21        -0.28148
      18 -> 23         0.57511
      19 -> 25        -0.10432

 Excited State  15:      Singlet-A      9.0930 eV  136.35 nm  f=0.0456  <S**2>=0.000
      15 -> 21         0.31107
      16 -> 21         0.55800
      18 -> 21         0.12495
      18 -> 23        -0.11249
      19 -> 25         0.16320

 Excited State  16:      Singlet-A      9.3863 eV  132.09 nm  f=0.0392  <S**2>=0.000
      15 -> 21        -0.11476
      18 -> 21        -0.11326
      19 -> 25         0.66941

 Excited State  17:      Singlet-A      9.6097 eV  129.02 nm  f=0.0135  <S**2>=0.000
      15 -> 21         0.38252
      19 -> 26         0.57126

 Excited State  18:      Singlet-A      9.7517 eV  127.14 nm  f=0.0064  <S**2>=0.000
      14 -> 21        -0.20143
      15 -> 21        -0.16660
      18 -> 24         0.63706
      19 -> 26         0.12633

 Excited State  19:      Singlet-A      9.7560 eV  127.09 nm  f=0.0185  <S**2>=0.000
      14 -> 21         0.38005
      15 -> 21         0.33057
      16 -> 21        -0.14688
      18 -> 24         0.30308
      19 -> 26        -0.32208

 Excited State  20:      Singlet-A      9.9458 eV  124.66 nm  f=0.0424  <S**2>=0.000
      17 -> 22         0.68949

 Excited State  21:      Singlet-A     10.0860 eV  122.93 nm  f=0.0460  <S**2>=0.000
      12 -> 21        -0.17194
      14 -> 21        -0.40487
      15 -> 21         0.19243
      16 -> 21        -0.15407
      19 -> 26        -0.15056
      20 -> 27         0.43765

 Excited State  22:      Singlet-A     10.1512 eV  122.14 nm  f=0.0525  <S**2>=0.000
      12 -> 21         0.14871
      14 -> 21         0.29984
      15 -> 21        -0.20296
      16 -> 21         0.16104
      20 -> 27         0.53082

 Excited State  23:      Singlet-A     10.2144 eV  121.38 nm  f=0.0233  <S**2>=0.000
      16 -> 22         0.10709
      17 -> 23         0.68744

 Excited State  24:      Singlet-A     10.3813 eV  119.43 nm  f=0.0375  <S**2>=0.000
      16 -> 22         0.69050

 The electronic state is 1-A.
 Alpha  occ. eigenvalues --  -18.80891 -18.75105 -13.97613 -10.01950  -9.93621
 Alpha  occ. eigenvalues --   -1.00590  -0.91792  -0.79774  -0.64617  -0.53704
 Alpha  occ. eigenvalues --   -0.46521  -0.43287  -0.42351  -0.38820  -0.37591
 Alpha  occ. eigenvalues --   -0.35033  -0.33295  -0.28019  -0.23587  -0.19172
 Alpha virt. eigenvalues --   -0.03169   0.02748   0.03933   0.07792   0.10618
 Alpha virt. eigenvalues --    0.11461   0.17555   0.19715   0.24310   0.29840
 Alpha virt. eigenvalues --    0.41084   0.42960   0.43799   0.47912   0.50505

 Mulliken charges:
               1
     1  N   -0.215040
     2  C    0.055923
     3  H    0.104520
     4  H    0.097654
     5  C    0.053637
     6  H    0.037098
     7  H    0.042544
     8  O   -0.200839
     9  O   -0.153115
    10  H    0.177619
 Sum of Mulliken charges =   0.00000

 Dipole moment (field-independent basis, Debye):
    X=              0.2650    Y=             -1.2891    Z=              1.3169  Tot=              1.8618
 Quadrupole moment (field-independent basis, Debye-Ang):
   XX=            -22.7665   YY=            -32.3960   ZZ=            -30.1014
   XY=              0.8437   XZ=             -3.2318   YZ=              0.0982

 Normal termination of Gaussian 09 at Fri Sep 11 13:23:08 2015.
