 Gaussian 09, Revision D.01,

 ----------------------------------
 #p opt freq pbepbe def2svp scf=xqc
 ----------------------------------

 ------------------------
 -- Glycine conformers --
 ------------------------
 Symbolic Z-matrix:
 Charge =  0 Multiplicity = 1

 SCF Done:  E(RPBE-PBE) =  -283.862209719     A.U. after   16 cycles
 SCF Done:  E(RPBE-PBE) =  -283.885726395     A.U. after   13 cycles
 SCF Done:  E(RPBE-PBE) =  -283.896916334     A.U. after   13 cycles
 SCF Done:  E(RPBE-PBE) =  -283.899932907     A.U. after   13 cycles
 SCF Done:  E(RPBE-PBE) =  -283.900931791     A.U. after   13 cycles
 SCF Done:  E(RPBE-PBE) =  -283.901123952     A.U. after   12 cycles
 SCF Done:  E(RPBE-PBE) =  -283.901149594     A.U. after    9 cycles
 SCF Done:  E(RPBE-PBE) =  -283.901151235     A.U. after    8 cycles
 Optimization completed.
    -- Stationary point found.

 1\1\GINC-HEISENBERG\FOpt\RPBEPBE\def2SVP\C2H5N1O2\LEIN\11-Sep-2015\0\\
 #p opt freq pbepbe def2svp scf=xqc\\-- Glycine conformers --\\0,1\N,0.
 0798593818,-1.9447419468,0.\C,-0.7761855743,-0.7753866223,0.\H,0.70490
 77414,-1.9153039481,0.8150944859\H,0.7049077414,-1.9153039481,-0.81509
 44859\C,-0.1392711347,0.6169768994,0.\H,-1.4581270634,-0.7954056284,-0
 .8783840594\H,-1.4581270634,-0.7954056284,0.8783840594\O,-0.757885056,
 1.6628606511,0.\O,1.2210947286,0.5628111681,0.\H,1.5154648487,1.500211
 5934,0.\\Version=EM64L-G09RevD.01\State=1-A'\HF=-283.9011512\RMSD=4.92

 Normal termination of Gaussian 09 at Fri Sep 11 13:25:48 2015.

 --------------------------------------------------------------------
 #P Geom=AllCheck Guess=TCheck SCRF=Check GenChk RPBEPBE/def2SVP Freq
 --------------------------------------------------------------------

 Structure from the checkpoint file:  "4-tct.chk"
 ------------------------
 -- Glycine conformers --
 ------------------------
 Charge =  0 Multiplicity = 1

 SCF Done:  E(RPBE-PBE) =  -283.901151235     A.U. after    1 cycles

  Exact polarizability:  37.813  -0.872  39.427   0.000   0.000  26.544
 Approx polarizability:  63.195 -10.079  67.421   0.000   0.000  42.509

                      1                      2                      3
                     A"                     A'                     A"
 Frequencies --     44.1074               257.4170               266.4592
 Red. masses --      2.1176                 4.3801                 1.1883
 Frc consts  --      0.0024                 0.1710                 0.0497
 IR Inten    --      0.0431                 2.6614                42.8860

                      4                      5                      6
                     A'                     A"                     A'
 Frequencies --    489.9175               502.9991               584.9054
 Red. masses --      6.0133                 1.6184                 3.3673
 Frc consts  --      0.8504                 0.2413                 0.6787
 IR Inten    --     12.9039                28.5391                48.3705

                      7                      8                      9
                     A"                     A'                     A'
 Frequencies --    685.6115               790.4161               875.0622
 Red. masses --      1.3111                 2.5946                 1.9047
 Frc consts  --      0.3631                 0.9551                 0.8593
 IR Inten    --     94.4221                93.1776               131.0115

                     10                     11                     12
                     A"                     A'                     A"
 Frequencies --    882.1818              1129.9599              1136.1754
 Red. masses --      1.7517                 2.3231                 1.2227
 Frc consts  --      0.8032                 1.7476                 0.9300
 IR Inten    --      3.8614               141.7815                 0.8525

                     13                     14                     15
                     A'                     A'                     A'
 Frequencies --   1141.3134              1291.7505              1317.3960
 Red. masses --      2.7880                 1.3732                 2.4722
 Frc consts  --      2.1397                 1.3500                 2.5280
 IR Inten    --     83.1550                17.8539                56.4980

                     16                     17                     18
                     A"                     A'                     A'
 Frequencies --   1330.4740              1373.0219              1601.3002
 Red. masses --      1.1920                 1.1595                 1.0918
 Frc consts  --      1.2432                 1.2879                 1.6494
 IR Inten    --      0.8745                 1.3029                22.0332

                     19                     20                     21
                     A'                     A'                     A"
 Frequencies --   1808.1084              2977.3603              3022.2074
 Red. masses --     10.5829                 1.0632                 1.1023
 Frc consts  --     20.3848                 5.5528                 5.9322
 IR Inten    --    238.9331                15.5459                 4.2076

                     22                     23                     24
                     A'                     A"                     A'
 Frequencies --   3422.1510              3496.1990              3621.8257
 Red. masses --      1.0510                 1.0911                 1.0637
 Frc consts  --      7.2521                 7.8577                 8.2210
 IR Inten    --      0.8019                 2.5246                49.4733

 - Thermochemistry -
 -------------------
 Temperature   298.150 Kelvin.  Pressure   1.00000 Atm.
 Atom     1 has atomic number  7 and mass  14.00307

 Molecular mass:    75.03203 amu.
 Principal axes and moments of inertia in atomic units:
                           1         2         3
     Eigenvalues --   181.67745 456.78994 617.79558
           X            0.12855   0.99170   0.00000
           Y            0.99170  -0.12855   0.00000
           Z            0.00000   0.00000   1.00000
 This molecule is an asymmetric top.
 Rotational symmetry number  1.
 Rotational temperatures (Kelvin)      0.47674     0.18961     0.14020
 Rotational constants (GHZ):           9.93377     3.95092     2.92126
 Zero-point vibrational energy     203654.2 (Joules/Mol)
                                   48.67452 (Kcal/Mol)
 Warning -- explicit consideration of   6 degrees of freedom as
           vibrations may cause significant error
 Vibrational temperatures:     63.46   370.37   383.37   704.88   723.70
          (Kelvin)            841.55   986.44  1137.23  1259.02  1269.26
                             1625.76  1634.70  1642.09  1858.54  1895.44
                             1914.25  1975.47  2303.91  2601.46  4283.75
                             4348.28  4923.71  5030.24  5210.99

 Zero-point correction=                           0.077568 (Hartree/Particle)
 Thermal correction to Energy=                    0.083236
 Thermal correction to Enthalpy=                  0.084180
 Thermal correction to Gibbs Free Energy=         0.048264
 Sum of electronic and zero-point Energies=           -283.823583
 Sum of electronic and thermal Energies=              -283.817915
 Sum of electronic and thermal Enthalpies=            -283.816971
 Sum of electronic and thermal Free Energies=         -283.852887

                     E (Thermal)             CV                S
                      KCal/Mol        Cal/Mol-Kelvin    Cal/Mol-Kelvin
 Total                   52.231             18.961             75.592
 Electronic               0.000              0.000              0.000
 Translational            0.889              2.981             38.862
 Rotational               0.889              2.981             25.442
 Vibrational             50.454             12.999             11.288
 Vibration     1          0.595              1.980              5.066
 Vibration     2          0.667              1.750              1.679
 Vibration     3          0.672              1.735              1.619
 Vibration     4          0.846              1.272              0.684
 Vibration     5          0.858              1.243              0.651
 Vibration     6          0.942              1.064              0.476

 Optimization completed.
    -- Stationary point found.

 1\1\GINC-HEISENBERG\Freq\RPBEPBE\def2SVP\C2H5N1O2\LEIN\11-Sep-2015\0\\
 #P Geom=AllCheck Guess=TCheck SCRF=Check GenChk RPBEPBE/def2SVP Freq\\
 -- Glycine conformers --\\0,1\N,0.0798593818,-1.9447419468,0.\C,-0.776
 1855743,-0.7753866223,0.\H,0.7049077414,-1.9153039481,0.8150944859\H,0
 .7049077414,-1.9153039481,-0.8150944859\C,-0.1392711347,0.6169768994,0
 .\H,-1.4581270634,-0.7954056284,-0.8783840594\H,-1.4581270634,-0.79540
 56284,0.8783840594\O,-0.757885056,1.6628606511,0.\O,1.2210947286,0.562
 8111681,0.\H,1.5154648487,1.5002115934,0.\\Version=EM64L-G09RevD.01\St

 Normal termination of Gaussian 09 at Fri Sep 11 13:28:11 2015.
 Gaussian 09:  EM64L-G09RevD.01 24-Apr-2013

 ----------------------------------------------------------
 #p td=(nstates=24) pbepbe def2svp geom=allcheck guess=read
 ----------------------------------------------------------

 Structure from the checkpoint file:  "4-tct.chk"
 ------------------------
 -- Glycine conformers --
 ------------------------
 Charge =  0 Multiplicity = 1

                         Standard orientation:
 ---------------------------------------------------------------------
 Center     Atomic      Atomic             Coordinates (Angstroms)
 Number     Number       Type             X           Y           Z
 ---------------------------------------------------------------------
      1          7           0       -0.217313   -1.918642    0.000000
      2          6           0       -0.863241   -0.621344    0.000000
      3          1           0        0.403708   -1.995348    0.815094
      4          1           0        0.403708   -1.995348   -0.815094
      5          6           0        0.000000    0.643232    0.000000
      6          1           0       -1.538743   -0.525732   -0.878384
      7          1           0       -1.538743   -0.525732    0.878384
      8          8           0       -0.432801    1.778678    0.000000
      9          8           0        1.331604    0.359755    0.000000
     10          1           0        1.780284    1.233860    0.000000
 ---------------------------------------------------------------------

 SCF Done:  E(RPBE-PBE) =  -283.901151235     A.U. after    1 cycles

 Excitation energies and oscillator strengths:

 Excited State   1:      Singlet-A"     4.5669 eV  271.49 nm  f=0.0008  <S**2>=0.000
      20 -> 21         0.70580
 This state for optimization and/or second-order correction.
 Total Energy, E(TD-HF/TD-KS) =  -283.733322453
 Copying the excited state density for this state as the 1-particle RhoCI density.

 Excited State   2:      Singlet-A'     5.8215 eV  212.98 nm  f=0.0050  <S**2>=0.000
      20 -> 22         0.70386

 Excited State   3:      Singlet-A"     6.0808 eV  203.90 nm  f=0.0002  <S**2>=0.000
      19 -> 21         0.70598

 Excited State   4:      Singlet-A'     6.7510 eV  183.65 nm  f=0.0130  <S**2>=0.000
      20 -> 23         0.69980

 Excited State   5:      Singlet-A'     7.2887 eV  170.10 nm  f=0.0192  <S**2>=0.000
      18 -> 21         0.20178
      19 -> 22         0.65157
      20 -> 24        -0.17857

 Excited State   6:      Singlet-A'     7.4035 eV  167.47 nm  f=0.0285  <S**2>=0.000
      19 -> 22         0.16485
      20 -> 24         0.67873

 Excited State   7:      Singlet-A"     7.5565 eV  164.08 nm  f=0.0086  <S**2>=0.000
      20 -> 25         0.70522

 Excited State   8:      Singlet-A"     8.0692 eV  153.65 nm  f=0.0008  <S**2>=0.000
      18 -> 22         0.70493

 Excited State   9:      Singlet-A'     8.1550 eV  152.04 nm  f=0.0329  <S**2>=0.000
      17 -> 21         0.10044
      18 -> 21        -0.30710
      19 -> 23         0.61098

 Excited State  10:      Singlet-A'     8.3646 eV  148.23 nm  f=0.0315  <S**2>=0.000
      14 -> 21        -0.11475
      17 -> 21        -0.35778
      18 -> 21         0.44258
      19 -> 22        -0.13286
      19 -> 23         0.33786

 Excited State  11:      Singlet-A'     8.6356 eV  143.57 nm  f=0.1524  <S**2>=0.000
      17 -> 21         0.57775
      18 -> 21         0.31956
      18 -> 25         0.11605
      19 -> 22        -0.10644
      19 -> 23         0.10214

 Excited State  12:      Singlet-A'     8.8421 eV  140.22 nm  f=0.0064  <S**2>=0.000
      19 -> 24         0.70174

 Excited State  13:      Singlet-A"     8.8935 eV  139.41 nm  f=0.0007  <S**2>=0.000
      16 -> 21         0.69614

 Excited State  14:      Singlet-A"     8.9540 eV  138.47 nm  f=0.0000  <S**2>=0.000
      18 -> 23         0.69691

 Excited State  15:      Singlet-A"     8.9748 eV  138.15 nm  f=0.0010  <S**2>=0.000
      19 -> 25         0.53633
      20 -> 26        -0.45557

 Excited State  16:      Singlet-A"     9.1106 eV  136.09 nm  f=0.0030  <S**2>=0.000
      19 -> 25         0.45711
      20 -> 26         0.53477

 Excited State  17:      Singlet-A"     9.4472 eV  131.24 nm  f=0.0036  <S**2>=0.000
      15 -> 21         0.28209
      17 -> 22         0.64202

 Excited State  18:      Singlet-A"     9.4759 eV  130.84 nm  f=0.0053  <S**2>=0.000
      15 -> 21         0.63822
      17 -> 22        -0.28120

 Excited State  19:      Singlet-A"     9.5670 eV  129.60 nm  f=0.0003  <S**2>=0.000
      18 -> 24         0.70338

 Excited State  20:      Singlet-A'     9.8314 eV  126.11 nm  f=0.0107  <S**2>=0.000
      18 -> 25         0.67518
      20 -> 27         0.12548

 Excited State  21:      Singlet-A'    10.0491 eV  123.38 nm  f=0.0773  <S**2>=0.000
      16 -> 22         0.68309
      20 -> 28         0.11112

 Excited State  22:      Singlet-A'    10.2987 eV  120.39 nm  f=0.0407  <S**2>=0.000
      14 -> 21        -0.12565
      18 -> 25        -0.10639
      20 -> 27         0.65255

 Excited State  23:      Singlet-A"    10.3639 eV  119.63 nm  f=0.0002  <S**2>=0.000
      17 -> 23         0.70391

 Excited State  24:      Singlet-A"    10.5158 eV  117.90 nm  f=0.0089  <S**2>=0.000
      19 -> 26         0.70295

 The electronic state is 1-A'.
 Alpha  occ. eigenvalues --  -18.80994 -18.74565 -13.98384 -10.01417  -9.93692
 Alpha  occ. eigenvalues --   -1.00322  -0.91386  -0.80377  -0.63726  -0.55292
 Alpha  occ. eigenvalues --   -0.45534  -0.44316  -0.41924  -0.39340  -0.37212
 Alpha  occ. eigenvalues --   -0.34635  -0.32706  -0.27640  -0.24857  -0.19363
 Alpha virt. eigenvalues --   -0.03046   0.01729   0.05140   0.07472   0.08164
 Alpha virt. eigenvalues --    0.13472   0.17176   0.18493   0.24641   0.32393
 Alpha virt. eigenvalues --    0.40467   0.41265   0.43325   0.46999   0.48364

 Mulliken charges:
               1
     1  N   -0.196989
     2  C    0.016960
     3  H    0.100485
     4  H    0.100485
     5  C    0.044296
     6  H    0.060261
     7  H    0.060261
     8  O   -0.197170
     9  O   -0.165003
    10  H    0.176413
 Sum of Mulliken charges =   0.00000

 Dipole moment (field-independent basis, Debye):
    X=              1.8463    Y=             -0.5703    Z=              0.0000  Tot=              1.9323
 Quadrupole moment (field-independent basis, Debye-Ang):
   XX=            -27.1533   YY=            -35.5880   ZZ=            -27.1780
   XY=              1.6271   XZ=              0.0000   YZ=              0.0000

 Normal termination of Gaussian 09 at Fri Sep 11 13:30:11 2015.
