 Gaussian 09, Revision D.01,

 ----------------------------------
 #p opt freq pbepbe def2svp scf=xqc
 ----------------------------------

 ------------------------
 -- Glycine conformers --
 ------------------------
 Symbolic Z-matrix:
 Charge =  0 Multiplicity = 1

 SCF Done:  E(RPBE-PBE) =  -283.871613076     A.U. after   16 cycles
 SCF Done:  E(RPBE-PBE) =  -283.891630891     A.U. after   13 cycles
 SCF Done:  E(RPBE-PBE) =  -283.896477330     A.U. after   13 cycles
 SCF Done:  E(RPBE-PBE) =  -283.896007128     A.U. after   13 cycles
 SCF Done:  E(RPBE-PBE) =  -283.896970234     A.U. after   11 cycles
 SCF Done:  E(RPBE-PBE) =  -283.897385617     A.U. after   13 cycles
 SCF Done:  E(RPBE-PBE) =  -283.897873060     A.U. after   12 cycles
 SCF Done:  E(RPBE-PBE) =  -283.898113010     A.U. after   13 cycles
 SCF Done:  E(RPBE-PBE) =  -283.898207603     A.U. after   13 cycles
 SCF Done:  E(RPBE-PBE) =  -283.898233115     A.U. after   12 cycles
 SCF Done:  E(RPBE-PBE) =  -283.898236248     A.U. after   11 cycles
 SCF Done:  E(RPBE-PBE) =  -283.898236677     A.U. after    8 cycles
 SCF Done:  E(RPBE-PBE) =  -283.898236884     A.U. after    8 cycles
 SCF Done:  E(RPBE-PBE) =  -283.898236949     A.U. after    8 cycles
 Optimization completed.
    -- Stationary point found.

 1\1\GINC-HEISENBERG\FOpt\RPBEPBE\def2SVP\C2H5N1O2\LEIN\11-Sep-2015\0\\
 #p opt freq pbepbe def2svp scf=xqc\\-- Glycine conformers --\\0,1\N,0.
 063074361,-1.9137309541,0.1774425631\C,-0.7399303832,-0.7225208478,-0.
 0454129028\H,0.8550650612,-1.921807878,-0.4774641418\H,-0.4939432128,-
 2.7509810681,-0.0301146872\C,0.0433885316,0.57188274,0.0984923948\H,-1
 .2335322972,-0.6385118963,-1.0533518817\H,-1.5656601913,-0.6644566426,
 0.6927741694\O,-0.4286184853,1.640815619,0.4305557126\O,1.3455700159,0
 .4195040372,-0.2596844733\H,1.7494723001,1.3091693707,-0.1596203631\\V

 Normal termination of Gaussian 09 at Fri Sep 11 13:37:19 2015.

 --------------------------------------------------------------------
 #P Geom=AllCheck Guess=TCheck SCRF=Check GenChk RPBEPBE/def2SVP Freq
 --------------------------------------------------------------------

 Structure from the checkpoint file:  "5-gct.chk"
 ------------------------
 -- Glycine conformers --
 ------------------------
 Charge =  0 Multiplicity = 1

 SCF Done:  E(RPBE-PBE) =  -283.898236949     A.U. after    1 cycles

  Exact polarizability:  42.191   0.109  38.399  -0.960  -0.160  25.010
 Approx polarizability:  66.969  -8.303  68.221  -2.576   1.356  39.929

                      1                      2                      3
                      A                      A                      A
 Frequencies --     69.1251               233.4599               285.7631
 Red. masses --      2.8094                 1.2459                 2.9705
 Frc consts  --      0.0079                 0.0400                 0.1429
 IR Inten    --      3.8743                31.0610                16.8520

                      4                      5                      6
                      A                      A                      A
 Frequencies --    459.0870               533.8834               591.1892
 Red. masses --      3.0407                 2.9299                 2.0084
 Frc consts  --      0.3776                 0.4920                 0.4136
 IR Inten    --      7.6746                16.5600                44.8403

                      7                      8                      9
                      A                      A                      A
 Frequencies --    692.8636               803.3457               824.3285
 Red. masses --      1.7663                 1.3061                 2.7943
 Frc consts  --      0.4996                 0.4966                 1.1187
 IR Inten    --     93.3945               141.3259                22.4260

                     10                     11                     12
                      A                      A                      A
 Frequencies --    978.1571              1072.2696              1121.0379
 Red. masses --      2.2088                 1.6260                 2.0733
 Frc consts  --      1.2452                 1.1015                 1.5351
 IR Inten    --     12.9841                52.6731               113.5187

                     13                     14                     15
                      A                      A                      A
 Frequencies --   1184.7390              1246.7606              1314.1642
 Red. masses --      1.4456                 1.3126                 1.8829
 Frc consts  --      1.1955                 1.2021                 1.9159
 IR Inten    --     63.2993                 9.5753                36.8135

                     16                     17                     18
                      A                      A                      A
 Frequencies --   1375.5423              1419.4388              1575.8536
 Red. masses --      1.8468                 1.1618                 1.0961
 Frc consts  --      2.0588                 1.3792                 1.6037
 IR Inten    --     48.2524                12.1509                34.1222

                     19                     20                     21
                      A                      A                      A
 Frequencies --   1816.9657              2831.0210              3030.2443
 Red. masses --     10.3628                 1.0739                 1.0879
 Frc consts  --     20.1567                 5.0710                 5.8859
 IR Inten    --    256.1649                69.4198                 8.3135

                     22                     23                     24
                      A                      A                      A
 Frequencies --   3419.3969              3503.6853              3626.9490
 Red. masses --      1.0508                 1.0924                 1.0638
 Frc consts  --      7.2387                 7.9012                 8.2450
 IR Inten    --      1.2641                 2.7317                51.4659

 - Thermochemistry -
 -------------------
 Temperature   298.150 Kelvin.  Pressure   1.00000 Atm.
 Atom     1 has atomic number  7 and mass  14.00307

 Molecular mass:    75.03203 amu.
 Principal axes and moments of inertia in atomic units:
                           1         2         3
     Eigenvalues --   183.24497 449.76446 606.23304
           X            0.99907   0.04196  -0.01025
           Y           -0.04208   0.99904  -0.01196
           Z            0.00974   0.01238   0.99988
 This molecule is an asymmetric top.
 Rotational symmetry number  1.
 Rotational temperatures (Kelvin)      0.47267     0.19258     0.14287
 Rotational constants (GHZ):           9.84879     4.01264     2.97698
 Zero-point vibrational energy     203420.6 (Joules/Mol)
                                   48.61869 (Kcal/Mol)
 Warning -- explicit consideration of   6 degrees of freedom as
           vibrations may cause significant error
 Vibrational temperatures:     99.46   335.90   411.15   660.52   768.14
          (Kelvin)            850.59   996.87  1155.83  1186.02  1407.35
                             1542.75  1612.92  1704.57  1793.81  1890.79
                             1979.10  2042.25  2267.30  2614.21  4073.20
                             4359.84  4919.74  5041.02  5218.36

 Zero-point correction=                           0.077479 (Hartree/Particle)
 Thermal correction to Energy=                    0.083094
 Thermal correction to Enthalpy=                  0.084038
 Thermal correction to Gibbs Free Energy=         0.048542
 Sum of electronic and zero-point Energies=           -283.820758
 Sum of electronic and thermal Energies=              -283.815143
 Sum of electronic and thermal Enthalpies=            -283.814199
 Sum of electronic and thermal Free Energies=         -283.849695

                     E (Thermal)             CV                S
                      KCal/Mol        Cal/Mol-Kelvin    Cal/Mol-Kelvin
 Total                   52.142             18.884             74.709
 Electronic               0.000              0.000              0.000
 Translational            0.889              2.981             38.862
 Rotational               0.889              2.981             25.416
 Vibrational             50.365             12.922             10.430
 Vibration     1          0.598              1.969              4.178
 Vibration     2          0.654              1.790              1.852
 Vibration     3          0.684              1.700              1.499
 Vibration     4          0.817              1.341              0.769
 Vibration     5          0.889              1.175              0.579
 Vibration     6          0.949              1.051              0.465

 Optimization completed.
    -- Stationary point found.

 1\1\GINC-HEISENBERG\Freq\RPBEPBE\def2SVP\C2H5N1O2\LEIN\11-Sep-2015\0\\
 #P Geom=AllCheck Guess=TCheck SCRF=Check GenChk RPBEPBE/def2SVP Freq\\
 -- Glycine conformers --\\0,1\N,0.063074361,-1.9137309541,0.1774425631
 \C,-0.7399303832,-0.7225208478,-0.0454129028\H,0.8550650612,-1.9218078
 78,-0.4774641418\H,-0.4939432128,-2.7509810681,-0.0301146872\C,0.04338
 85316,0.57188274,0.0984923948\H,-1.2335322972,-0.6385118963,-1.0533518
 817\H,-1.5656601913,-0.6644566426,0.6927741694\O,-0.4286184853,1.64081
 5619,0.4305557126\O,1.3455700159,0.4195040372,-0.2596844733\H,1.749472

 Normal termination of Gaussian 09 at Fri Sep 11 13:40:50 2015.
 Gaussian 09:  EM64L-G09RevD.01 24-Apr-2013

 ----------------------------------------------------------
 #p td=(nstates=24) pbepbe def2svp geom=allcheck guess=read
 ----------------------------------------------------------

 Structure from the checkpoint file:  "5-gct.chk"
 ------------------------
 -- Glycine conformers --
 ------------------------
 Charge =  0 Multiplicity = 1

                         Standard orientation:
 ---------------------------------------------------------------------
 Center     Atomic      Atomic             Coordinates (Angstroms)
 Number     Number       Type             X           Y           Z
 ---------------------------------------------------------------------
      1          7           0       -1.828758    0.168282   -0.269896
      2          6           0       -0.760392   -0.697180    0.202365
      3          1           0       -1.773524    1.075523    0.209772
      4          1           0       -2.738728   -0.236989   -0.020806
      5          6           0        0.627231   -0.109290    0.005729
      6          1           0       -0.792800   -0.975551    1.292366
      7          1           0       -0.765813   -1.660129   -0.347928
      8          8           0        1.645481   -0.755519   -0.139967
      9          8           0        0.618913    1.247666    0.081809
     10          1           0        1.555987    1.520816   -0.027439
 ---------------------------------------------------------------------

 SCF Done:  E(RPBE-PBE) =  -283.898236949     A.U. after    1 cycles

 Excitation energies and oscillator strengths:

 Excited State   1:      Singlet-A      4.6392 eV  267.25 nm  f=0.0066  <S**2>=0.000
      20 -> 21         0.70472
 This state for optimization and/or second-order correction.
 Total Energy, E(TD-HF/TD-KS) =  -283.727749016
 Copying the excited state density for this state as the 1-particle RhoCI density.

 Excited State   2:      Singlet-A      5.6737 eV  218.52 nm  f=0.0011  <S**2>=0.000
      19 -> 21         0.70467

 Excited State   3:      Singlet-A      5.9476 eV  208.46 nm  f=0.0027  <S**2>=0.000
      20 -> 22         0.70264

 Excited State   4:      Singlet-A      6.7085 eV  184.82 nm  f=0.0180  <S**2>=0.000
      20 -> 23         0.69761

 Excited State   5:      Singlet-A      6.9317 eV  178.87 nm  f=0.0200  <S**2>=0.000
      18 -> 21        -0.15082
      19 -> 22         0.68297

 Excited State   6:      Singlet-A      7.5458 eV  164.31 nm  f=0.0358  <S**2>=0.000
      19 -> 23         0.21284
      20 -> 24         0.66237

 Excited State   7:      Singlet-A      7.6063 eV  163.00 nm  f=0.0263  <S**2>=0.000
      18 -> 21         0.17475
      19 -> 23         0.64737
      20 -> 24        -0.20396

 Excited State   8:      Singlet-A      8.0343 eV  154.32 nm  f=0.0404  <S**2>=0.000
      20 -> 24        -0.10719
      20 -> 25         0.67713

 Excited State   9:      Singlet-A      8.0614 eV  153.80 nm  f=0.0355  <S**2>=0.000
      18 -> 21         0.33412
      18 -> 22         0.56799
      18 -> 23         0.10710
      19 -> 23        -0.12691
      20 -> 25         0.14202

 Excited State  10:      Singlet-A      8.4034 eV  147.54 nm  f=0.0180  <S**2>=0.000
      18 -> 21         0.13135
      18 -> 22        -0.14586
      19 -> 24         0.66682

 Excited State  11:      Singlet-A      8.5041 eV  145.79 nm  f=0.0665  <S**2>=0.000
      16 -> 21         0.13606
      18 -> 21         0.43588
      18 -> 22        -0.36734
      18 -> 23         0.22622
      19 -> 22         0.10233
      19 -> 24        -0.18370
      19 -> 25        -0.13590

 Excited State  12:      Singlet-A      8.6369 eV  143.55 nm  f=0.0127  <S**2>=0.000
      15 -> 21        -0.11707
      17 -> 21         0.67867

 Excited State  13:      Singlet-A      8.7872 eV  141.10 nm  f=0.0284  <S**2>=0.000
      16 -> 21         0.17295
      19 -> 25         0.23251
      20 -> 26         0.63361

 Excited State  14:      Singlet-A      8.8343 eV  140.34 nm  f=0.0271  <S**2>=0.000
      18 -> 23         0.20511
      19 -> 25         0.61430
      20 -> 26        -0.25007

 Excited State  15:      Singlet-A      8.8440 eV  140.19 nm  f=0.0169  <S**2>=0.000
      15 -> 21        -0.18153
      16 -> 21         0.62299
      17 -> 21        -0.14254
      19 -> 25        -0.11457
      20 -> 26        -0.14564

 Excited State  16:      Singlet-A      8.9788 eV  138.09 nm  f=0.0383  <S**2>=0.000
      18 -> 21        -0.23685
      18 -> 23         0.61558
      19 -> 25        -0.17410

 Excited State  17:      Singlet-A      9.5608 eV  129.68 nm  f=0.0085  <S**2>=0.000
      19 -> 26         0.70221

 Excited State  18:      Singlet-A      9.6160 eV  128.94 nm  f=0.0024  <S**2>=0.000
      18 -> 24         0.70613

 Excited State  19:      Singlet-A      9.8447 eV  125.94 nm  f=0.0076  <S**2>=0.000
      15 -> 21         0.25392
      16 -> 22         0.17413
      17 -> 22         0.61506

 Excited State  20:      Singlet-A      9.9713 eV  124.34 nm  f=0.1145  <S**2>=0.000
      15 -> 21         0.34332
      16 -> 22         0.48816
      17 -> 22        -0.31814

 Excited State  21:      Singlet-A      9.9963 eV  124.03 nm  f=0.0457  <S**2>=0.000
      15 -> 21        -0.36983
      16 -> 21        -0.10888
      16 -> 22         0.44806
      17 -> 22         0.11237
      18 -> 25        -0.28915
      20 -> 27        -0.14102

 Excited State  22:      Singlet-A     10.1090 eV  122.65 nm  f=0.0152  <S**2>=0.000
      15 -> 21        -0.11593
      18 -> 25         0.54416
      20 -> 27        -0.39970

 Excited State  23:      Singlet-A     10.2254 eV  121.25 nm  f=0.0118  <S**2>=0.000
      15 -> 21        -0.20340
      16 -> 22         0.12572
      18 -> 25         0.29882
      20 -> 27         0.54535
      20 -> 28         0.11270

 Excited State  24:      Singlet-A     10.3523 eV  119.77 nm  f=0.0207  <S**2>=0.000
      12 -> 21        -0.15426
      14 -> 21         0.67049
      15 -> 21         0.11065

 The electronic state is 1-A.
 Alpha  occ. eigenvalues --  -18.80665 -18.74424 -13.98282 -10.01598  -9.93663
 Alpha  occ. eigenvalues --   -1.00183  -0.91239  -0.80229  -0.64129  -0.54871
 Alpha  occ. eigenvalues --   -0.44893  -0.43300  -0.41981  -0.40369  -0.37036
 Alpha  occ. eigenvalues --   -0.34267  -0.33752  -0.27676  -0.23053  -0.19564
 Alpha virt. eigenvalues --   -0.02940   0.02069   0.04776   0.07634   0.09238
 Alpha virt. eigenvalues --    0.11936   0.17367   0.19155   0.24552   0.30031
 Alpha virt. eigenvalues --    0.40361   0.42487   0.44486   0.47955   0.49640

 Mulliken charges:
               1
     1  N   -0.217593
     2  C    0.048525
     3  H    0.105288
     4  H    0.099547
     5  C    0.059715
     6  H    0.038659
     7  H    0.046473
     8  O   -0.195078
     9  O   -0.162696
    10  H    0.177161
 Sum of Mulliken charges =   0.00000

 Dipole moment (field-independent basis, Debye):
    X=             -1.4286    Y=              1.0814    Z=              1.4474  Tot=              2.3034
 Quadrupole moment (field-independent basis, Debye-Ang):
   XX=            -27.5086   YY=            -28.1109   ZZ=            -30.3179
   XY=              5.4875   XZ=             -2.2264   YZ=              0.1695

 Normal termination of Gaussian 09 at Fri Sep 11 13:44:34 2015.
