 Gaussian 09, Revision D.01,

 ----------------------------------
 #p opt freq pbepbe def2svp scf=xqc
 ----------------------------------

 ------------------------
 -- Glycine conformers --
 ------------------------
 Symbolic Z-matrix:
 Charge =  0 Multiplicity = 1

 SCF Done:  E(RPBE-PBE) =  -283.859286695     A.U. after   17 cycles
 SCF Done:  E(RPBE-PBE) =  -283.881019674     A.U. after   14 cycles
 SCF Done:  E(RPBE-PBE) =  -283.891390324     A.U. after   13 cycles
 SCF Done:  E(RPBE-PBE) =  -283.894375629     A.U. after   14 cycles
 SCF Done:  E(RPBE-PBE) =  -283.895366125     A.U. after   13 cycles
 SCF Done:  E(RPBE-PBE) =  -283.895514315     A.U. after   12 cycles
 SCF Done:  E(RPBE-PBE) =  -283.895537863     A.U. after    9 cycles
 SCF Done:  E(RPBE-PBE) =  -283.895539119     A.U. after    8 cycles
 Optimization completed.
    -- Stationary point found.

 1\1\GINC-HEISENBERG\FOpt\RPBEPBE\def2SVP\C2H5N1O2\LEIN\11-Sep-2015\0\\
 #p opt freq pbepbe def2svp scf=xqc\\-- Glycine conformers --\\0,1\N,0.
 0299822408,-1.9461518782,0.\C,-0.8144699618,-0.7730954961,0.\H,0.66191
 37931,-1.8939512063,0.810446456\H,0.6619137931,-1.8939512063,-0.810446
 456\C,-0.0709743095,0.5751568323,0.\H,-1.4920659892,-0.7915539276,-0.8
 853459855\H,-1.4920659892,-0.7915539276,0.8853459855\O,1.1350790598,0.
 6745579793,0.\O,-0.8610018462,1.6844341591,0.\H,-1.8007155218,1.412243
 0125,0.\\Version=EM64L-G09RevD.01\State=1-A'\HF=-283.8955391\RMSD=6.01

 Normal termination of Gaussian 09 at Fri Sep 11 13:47:17 2015.

 --------------------------------------------------------------------
 #P Geom=AllCheck Guess=TCheck SCRF=Check GenChk RPBEPBE/def2SVP Freq
 --------------------------------------------------------------------

 Structure from the checkpoint file:  "6-ttc.chk"
 ------------------------
 -- Glycine conformers --
 ------------------------
 Charge =  0 Multiplicity = 1

 SCF Done:  E(RPBE-PBE) =  -283.895539119     A.U. after    1 cycles

  Exact polarizability:  42.251  -2.695  35.044   0.000   0.000  26.816
 Approx polarizability:  81.874  -2.238  52.740   0.000   0.000  42.907

                      1                      2                      3
                     A"                     A"                     A'
 Frequencies --     70.1954               228.6126               254.1460
 Red. masses --      1.8359                 1.2771                 4.3624
 Frc consts  --      0.0053                 0.0393                 0.1660
 IR Inten    --      8.0707                63.6699                28.6414

                      4                      5                      6
                     A"                     A'                     A"
 Frequencies --    453.1204               456.6813               561.4578
 Red. masses --      1.4108                 4.1091                 1.5383
 Frc consts  --      0.1707                 0.5049                 0.2857
 IR Inten    --     51.0873                 1.2298                30.3374

                      7                      8                      9
                     A'                     A'                     A"
 Frequencies --    636.0209               817.0509               899.9280
 Red. masses --      5.2962                 3.5539                 1.7312
 Frc consts  --      1.2623                 1.3978                 0.8261
 IR Inten    --     14.0945                26.3861                 1.1158

                     10                     11                     12
                     A'                     A'                     A"
 Frequencies --    902.3101              1115.8737              1124.8713
 Red. masses --      1.7710                 2.0617                 1.2008
 Frc consts  --      0.8495                 1.5126                 0.8952
 IR Inten    --    175.3830                11.8959                 0.2332

                     13                     14                     15
                     A'                     A'                     A'
 Frequencies --   1153.9346              1240.0958              1320.1162
 Red. masses --      2.5950                 1.5859                 2.0537
 Frc consts  --      2.0359                 1.4369                 2.1087
 IR Inten    --      5.7302               308.1352                82.6781

                     16                     17                     18
                     A"                     A'                     A'
 Frequencies --   1339.5037              1384.6764              1603.3625
 Red. masses --      1.2057                 1.1271                 1.0845
 Frc consts  --      1.2746                 1.2732                 1.6427
 IR Inten    --      1.5247                 3.8380                17.7074

                     19                     20                     21
                     A'                     A'                     A"
 Frequencies --   1838.4259              2938.4684              2985.7030
 Red. masses --     10.6665                 1.0613                 1.1032
 Frc consts  --     21.2405                 5.3992                 5.7940
 IR Inten    --    202.2956                28.1222                11.0243

                     22                     23                     24
                     A'                     A"                     A'
 Frequencies --   3409.8083              3478.2805              3659.3862
 Red. masses --      1.0514                 1.0900                 1.0655
 Frc consts  --      7.2025                 7.7700                 8.4063
 IR Inten    --      2.0306                 3.5448                29.2122

 - Thermochemistry -
 -------------------
 Temperature   298.150 Kelvin.  Pressure   1.00000 Atm.
 Atom     1 has atomic number  7 and mass  14.00307

 Molecular mass:    75.03203 amu.
 Principal axes and moments of inertia in atomic units:
                           1         2         3
     Eigenvalues --   179.58429 466.44501 625.28950
           X           -0.23706   0.97149   0.00000
           Y            0.97149   0.23706   0.00000
           Z            0.00000   0.00000   1.00000
 This molecule is an asymmetric top.
 Rotational symmetry number  1.
 Rotational temperatures (Kelvin)      0.48230     0.18569     0.13852
 Rotational constants (GHZ):          10.04955     3.86914     2.88625
 Zero-point vibrational energy     202599.7 (Joules/Mol)
                                   48.42250 (Kcal/Mol)
 Warning -- explicit consideration of   6 degrees of freedom as
           vibrations may cause significant error
 Vibrational temperatures:    101.00   328.92   365.66   651.94   657.06
          (Kelvin)            807.81   915.09  1175.55  1294.79  1298.22
                             1605.49  1618.44  1660.25  1784.22  1899.35
                             1927.24  1992.24  2306.88  2645.08  4227.80
                             4295.76  4905.95  5004.46  5265.03

 Zero-point correction=                           0.077166 (Hartree/Particle)
 Thermal correction to Energy=                    0.082927
 Thermal correction to Enthalpy=                  0.083871
 Thermal correction to Gibbs Free Energy=         0.048099
 Sum of electronic and zero-point Energies=           -283.818373
 Sum of electronic and thermal Energies=              -283.812612
 Sum of electronic and thermal Enthalpies=            -283.811668
 Sum of electronic and thermal Free Energies=         -283.847440

                     E (Thermal)             CV                S
                      KCal/Mol        Cal/Mol-Kelvin    Cal/Mol-Kelvin
 Total                   52.037             19.272             75.289
 Electronic               0.000              0.000              0.000
 Translational            0.889              2.981             38.862
 Rotational               0.889              2.981             25.463
 Vibrational             50.260             13.310             10.964
 Vibration     1          0.598              1.968              4.148
 Vibration     2          0.651              1.797              1.890
 Vibration     3          0.665              1.756              1.702
 Vibration     4          0.812              1.354              0.786
 Vibration     5          0.815              1.346              0.776
 Vibration     6          0.917              1.115              0.521

 Optimization completed.
    -- Stationary point found.

 1\1\GINC-HEISENBERG\Freq\RPBEPBE\def2SVP\C2H5N1O2\LEIN\11-Sep-2015\0\\
 #P Geom=AllCheck Guess=TCheck SCRF=Check GenChk RPBEPBE/def2SVP Freq\\
 -- Glycine conformers --\\0,1\N,0.0299822408,-1.9461518782,0.\C,-0.814
 4699618,-0.7730954961,0.\H,0.6619137931,-1.8939512063,0.810446456\H,0.
 6619137931,-1.8939512063,-0.810446456\C,-0.0709743095,0.5751568323,0.\
 H,-1.4920659892,-0.7915539276,-0.8853459855\H,-1.4920659892,-0.7915539
 276,0.8853459855\O,1.1350790598,0.6745579793,0.\O,-0.8610018462,1.6844
 341591,0.\H,-1.8007155218,1.4122430125,0.\\Version=EM64L-G09RevD.01\St

 Normal termination of Gaussian 09 at Fri Sep 11 13:49:38 2015.
 Gaussian 09:  EM64L-G09RevD.01 24-Apr-2013

 ----------------------------------------------------------
 #p td=(nstates=24) pbepbe def2svp geom=allcheck guess=read
 ----------------------------------------------------------

 Structure from the checkpoint file:  "6-ttc.chk"
 ------------------------
 -- Glycine conformers --
 ------------------------
 Charge =  0 Multiplicity = 1

                         Standard orientation:
 ---------------------------------------------------------------------
 Center     Atomic      Atomic             Coordinates (Angstroms)
 Number     Number       Type             X           Y           Z
 ---------------------------------------------------------------------
      1          7           0        0.484070   -1.897098    0.000000
      2          6           0       -0.529311   -0.866457    0.000000
      3          1           0        1.100661   -1.749190    0.810446
      4          1           0        1.100661   -1.749190   -0.810446
      5          6           0        0.000000    0.579364    0.000000
      6          1           0       -1.196177   -0.987978   -0.885346
      7          1           0       -1.196177   -0.987978    0.885346
      8          8           0        1.176811    0.861428    0.000000
      9          8           0       -0.949871    1.555266    0.000000
     10          1           0       -1.837118    1.143026    0.000000
 ---------------------------------------------------------------------

 SCF Done:  E(RPBE-PBE) =  -283.895539119     A.U. after    1 cycles

 Excitation energies and oscillator strengths:

 Excited State   1:      Singlet-A"     4.8556 eV  255.34 nm  f=0.0008  <S**2>=0.000
      20 -> 21         0.70341
 This state for optimization and/or second-order correction.
 Total Energy, E(TD-HF/TD-KS) =  -283.717099114
 Copying the excited state density for this state as the 1-particle RhoCI density.

 Excited State   2:      Singlet-A"     5.7195 eV  216.77 nm  f=0.0008  <S**2>=0.000
      19 -> 21         0.70363

 Excited State   3:      Singlet-A'     5.7435 eV  215.87 nm  f=0.0026  <S**2>=0.000
      20 -> 22         0.70654

 Excited State   4:      Singlet-A'     6.5218 eV  190.11 nm  f=0.0125  <S**2>=0.000
      19 -> 22         0.70056

 Excited State   5:      Singlet-A'     6.6834 eV  185.51 nm  f=0.0019  <S**2>=0.000
      20 -> 23         0.70433

 Excited State   6:      Singlet-A'     7.4282 eV  166.91 nm  f=0.0309  <S**2>=0.000
      18 -> 21         0.20030
      19 -> 23         0.67180

 Excited State   7:      Singlet-A"     7.6590 eV  161.88 nm  f=0.0129  <S**2>=0.000
      20 -> 24         0.70412

 Excited State   8:      Singlet-A"     7.7465 eV  160.05 nm  f=0.0037  <S**2>=0.000
      18 -> 22         0.70442

 Excited State   9:      Singlet-A'     7.9259 eV  156.43 nm  f=0.0117  <S**2>=0.000
      18 -> 21         0.13789
      20 -> 25         0.68982

 Excited State  10:      Singlet-A'     8.2247 eV  150.75 nm  f=0.0430  <S**2>=0.000
      17 -> 21        -0.38353
      18 -> 21         0.50770
      18 -> 24         0.14069
      19 -> 23        -0.14592
      19 -> 25         0.15151
      20 -> 25        -0.10680

 Excited State  11:      Singlet-A"     8.3946 eV  147.69 nm  f=0.0025  <S**2>=0.000
      19 -> 24         0.70421

 Excited State  12:      Singlet-A"     8.5373 eV  145.23 nm  f=0.0010  <S**2>=0.000
      18 -> 23         0.70452

 Excited State  13:      Singlet-A'     8.6292 eV  143.68 nm  f=0.0244  <S**2>=0.000
      17 -> 21         0.34663
      19 -> 25         0.60181

 Excited State  14:      Singlet-A"     8.7351 eV  141.94 nm  f=0.0010  <S**2>=0.000
      16 -> 21         0.69877

 Excited State  15:      Singlet-A'     8.8396 eV  140.26 nm  f=0.1536  <S**2>=0.000
      14 -> 21         0.17954
      17 -> 21         0.44064
      18 -> 21         0.30232
      18 -> 24         0.16217
      19 -> 23        -0.12331
      19 -> 25        -0.33081

 Excited State  16:      Singlet-A"     9.1731 eV  135.16 nm  f=0.0089  <S**2>=0.000
      17 -> 22         0.69814
      20 -> 26         0.10174

 Excited State  17:      Singlet-A"     9.2403 eV  134.18 nm  f=0.0032  <S**2>=0.000
      17 -> 22        -0.10199
      20 -> 26         0.69103

 Excited State  18:      Singlet-A"     9.5302 eV  130.10 nm  f=0.0002  <S**2>=0.000
      13 -> 21         0.14442
      15 -> 21         0.67741

 Excited State  19:      Singlet-A'     9.7111 eV  127.67 nm  f=0.0192  <S**2>=0.000
      16 -> 22         0.58059
      18 -> 24        -0.36559
      20 -> 27         0.10186

 Excited State  20:      Singlet-A'     9.7349 eV  127.36 nm  f=0.0320  <S**2>=0.000
      14 -> 21        -0.14565
      16 -> 22         0.36153
      18 -> 21        -0.14778
      18 -> 24         0.55253

 Excited State  21:      Singlet-A"     9.8334 eV  126.08 nm  f=0.0022  <S**2>=0.000
      18 -> 25         0.70111

 Excited State  22:      Singlet-A"     9.8692 eV  125.63 nm  f=0.0005  <S**2>=0.000
      19 -> 26         0.69479

 Excited State  23:      Singlet-A"    10.0849 eV  122.94 nm  f=0.0000  <S**2>=0.000
      17 -> 23         0.70237

 Excited State  24:      Singlet-A'    10.2444 eV  121.03 nm  f=0.0315  <S**2>=0.000
      15 -> 22         0.63968
      20 -> 27        -0.28214

 The electronic state is 1-A'.
 Alpha  occ. eigenvalues --  -18.80823 -18.74583 -13.98695 -10.01503  -9.94719
 Alpha  occ. eigenvalues --   -0.99886  -0.92138  -0.80821  -0.63463  -0.55624
 Alpha  occ. eigenvalues --   -0.47365  -0.46066  -0.40968  -0.39299  -0.37060
 Alpha  occ. eigenvalues --   -0.34608  -0.33190  -0.27825  -0.23459  -0.20631
 Alpha virt. eigenvalues --   -0.03172   0.00292   0.03472   0.07313   0.08187
 Alpha virt. eigenvalues --    0.12648   0.16338   0.18636   0.25731   0.30760
 Alpha virt. eigenvalues --    0.39836   0.40490   0.42768   0.47069   0.48743

 Mulliken charges:
               1
     1  N   -0.185540
     2  C   -0.025752
     3  H    0.103453
     4  H    0.103453
     5  C    0.045754
     6  H    0.048069
     7  H    0.048069
     8  O   -0.173801
     9  O   -0.135922
    10  H    0.172217
 Sum of Mulliken charges =   0.00000

 Dipole moment (field-independent basis, Debye):
    X=             -2.5863    Y=             -1.0319    Z=              0.0000  Tot=              2.7845
 Quadrupole moment (field-independent basis, Debye-Ang):
   XX=            -25.8700   YY=            -37.5199   ZZ=            -27.2554
   XY=             -3.9128   XZ=              0.0000   YZ=              0.0000

 Normal termination of Gaussian 09 at Fri Sep 11 13:51:40 2015.
